+ 0.1 0 2 cbr 500 ------- 0 0.0 3.0 0 0
- 0.1 0 2 cbr 500 ------- 0 0.0 3.0 0 0
+ 0.105 0 2 cbr 500 ------- 0 0.0 3.0 1 1
- 0.105 0 2 cbr 500 ------- 0 0.0 3.0 1 1
+ 0.11 0 2 cbr 500 ------- 0 0.0 3.0 2 2
- 0.11 0 2 cbr 500 ------- 0 0.0 3.0 2 2
r 0.11002 0 2 cbr 500 ------- 0 0.0 3.0 0 0
+ 0.11002 2 3 cbr 500 ------- 0 0.0 3.0 0 0
- 0.11002 2 3 cbr 500 ------- 0 0.0 3.0 0 0
+ 0.115 0 2 cbr 500 ------- 0 0.0 3.0 3 3
- 0.115 0 2 cbr 500 ------- 0 0.0 3.0 3 3
r 0.11502 0 2 cbr 500 ------- 0 0.0 3.0 1 1
+ 0.11502 2 3 cbr 500 ------- 0 0.0 3.0 1 1
- 0.11502 2 3 cbr 500 ------- 0 0.0 3.0 1 1
+ 0.12 0 2 cbr 500 ------- 0 0.0 3.0 4 4
- 0.12 0 2 cbr 500 ------- 0 0.0 3.0 4 4
r 0.12002 0 2 cbr 500 ------- 0 0.0 3.0 2 2
+ 0.12002 2 3 cbr 500 ------- 0 0.0 3.0 2 2
- 0.12002 2 3 cbr 500 ------- 0 0.0 3.0 2 2
+ 0.125 0 2 cbr 500 ------- 0 0.0 3.0 5 5
- 0.125 0 2 cbr 500 ------- 0 0.0 3.0 5 5
r 0.12502 0 2 cbr 500 ------- 0 0.0 3.0 3 3
+ 0.12502 2 3 cbr 500 ------- 0 0.0 3.0 3 3
- 0.12502 2 3 cbr 500 ------- 0 0.0 3.0 3 3
+ 0.13 0 2 cbr 500 ------- 0 0.0 3.0 6 6
- 0.13 0 2 cbr 500 ------- 0 0.0 3.0 6 6
r 0.13002 0 2 cbr 500 ------- 0 0.0 3.0 4 4
+ 0.13002 2 3 cbr 500 ------- 0 0.0 3.0 4 4
- 0.13002 2 3 cbr 500 ------- 0 0.0 3.0 4 4
+ 0.135 0 2 cbr 500 ------- 0 0.0 3.0 7 7
- 0.135 0 2 cbr 500 ------- 0 0.0 3.0 7 7
r 0.13502 0 2 cbr 500 ------- 0 0.0 3.0 5 5
+ 0.13502 2 3 cbr 500 ------- 0 0.0 3.0 5 5
- 0.13502 2 3 cbr 500 ------- 0 0.0 3.0 5 5
+ 0.14 0 2 cbr 500 ------- 0 0.0 3.0 8 8
- 0.14 0 2 cbr 500 ------- 0 0.0 3.0 8 8
r 0.14002 0 2 cbr 500 ------- 0 0.0 3.0 6 6
+ 0.14002 2 3 cbr 500 ------- 0 0.0 3.0 6 6
- 0.14002 2 3 cbr 500 ------- 0 0.0 3.0 6 6
+ 0.145 0 2 cbr 500 ------- 0 0.0 3.0 9 9
- 0.145 0 2 cbr 500 ------- 0 0.0 3.0 9 9
r 0.14502 0 2 cbr 500 ------- 0 0.0 3.0 7 7
+ 0.14502 2 3 cbr 500 ------- 0 0.0 3.0 7 7
- 0.14502 2 3 cbr 500 ------- 0 0.0 3.0 7 7
+ 0.15 0 2 cbr 500 ------- 0 0.0 3.0 10 10
- 0.15 0 2 cbr 500 ------- 0 0.0 3.0 10 10
r 0.15002 0 2 cbr 500 ------- 0 0.0 3.0 8 8
+ 0.15002 2 3 cbr 500 ------- 0 0.0 3.0 8 8
- 0.15002 2 3 cbr 500 ------- 0 0.0 3.0 8 8
+ 0.155 0 2 cbr 500 ------- 0 0.0 3.0 11 11
- 0.155 0 2 cbr 500 ------- 0 0.0 3.0 11 11
r 0.15502 0 2 cbr 500 ------- 0 0.0 3.0 9 9
+ 0.15502 2 3 cbr 500 ------- 0 0.0 3.0 9 9
- 0.15502 2 3 cbr 500 ------- 0 0.0 3.0 9 9
+ 0.16 0 2 cbr 500 ------- 0 0.0 3.0 12 12
- 0.16 0 2 cbr 500 ------- 0 0.0 3.0 12 12
r 0.16002 0 2 cbr 500 ------- 0 0.0 3.0 10 10
+ 0.16002 2 3 cbr 500 ------- 0 0.0 3.0 10 10
- 0.16002 2 3 cbr 500 ------- 0 0.0 3.0 10 10
+ 0.165 0 2 cbr 500 ------- 0 0.0 3.0 13 13
- 0.165 0 2 cbr 500 ------- 0 0.0 3.0 13 13
r 0.16502 0 2 cbr 500 ------- 0 0.0 3.0 11 11
+ 0.16502 2 3 cbr 500 ------- 0 0.0 3.0 11 11
- 0.16502 2 3 cbr 500 ------- 0 0.0 3.0 11 11
+ 0.17 0 2 cbr 500 ------- 0 0.0 3.0 14 14
- 0.17 0 2 cbr 500 ------- 0 0.0 3.0 14 14
r 0.17002 0 2 cbr 500 ------- 0 0.0 3.0 12 12
+ 0.17002 2 3 cbr 500 ------- 0 0.0 3.0 12 12
- 0.17002 2 3 cbr 500 ------- 0 0.0 3.0 12 12
+ 0.175 0 2 cbr 500 ------- 0 0.0 3.0 15 15
- 0.175 0 2 cbr 500 ------- 0 0.0 3.0 15 15
r 0.17502 0 2 cbr 500 ------- 0 0.0 3.0 13 13
+ 0.17502 2 3 cbr 500 ------- 0 0.0 3.0 13 13
- 0.17502 2 3 cbr 500 ------- 0 0.0 3.0 13 13
+ 0.18 0 2 cbr 500 ------- 0 0.0 3.0 16 16
- 0.18 0 2 cbr 500 ------- 0 0.0 3.0 16 16
r 0.18002 0 2 cbr 500 ------- 0 0.0 3.0 14 14
+ 0.18002 2 3 cbr 500 ------- 0 0.0 3.0 14 14
- 0.18002 2 3 cbr 500 ------- 0 0.0 3.0 14 14
+ 0.185 0 2 cbr 500 ------- 0 0.0 3.0 17 17
- 0.185 0 2 cbr 500 ------- 0 0.0 3.0 17 17
r 0.18502 0 2 cbr 500 ------- 0 0.0 3.0 15 15
+ 0.18502 2 3 cbr 500 ------- 0 0.0 3.0 15 15
- 0.18502 2 3 cbr 500 ------- 0 0.0 3.0 15 15
+ 0.19 0 2 cbr 500 ------- 0 0.0 3.0 18 18
- 0.19 0 2 cbr 500 ------- 0 0.0 3.0 18 18
r 0.19002 0 2 cbr 500 ------- 0 0.0 3.0 16 16
+ 0.19002 2 3 cbr 500 ------- 0 0.0 3.0 16 16
- 0.19002 2 3 cbr 500 ------- 0 0.0 3.0 16 16
+ 0.195 0 2 cbr 500 ------- 0 0.0 3.0 19 19
- 0.195 0 2 cbr 500 ------- 0 0.0 3.0 19 19
r 0.19502 0 2 cbr 500 ------- 0 0.0 3.0 17 17
+ 0.19502 2 3 cbr 500 ------- 0 0.0 3.0 17 17
- 0.19502 2 3 cbr 500 ------- 0 0.0 3.0 17 17
+ 0.2 1 2 cbr 210 ------- 0 1.0 3.0 0 20
- 0.2 1 2 cbr 210 ------- 0 1.0 3.0 0 20
+ 0.2 0 2 cbr 500 ------- 0 0.0 3.0 20 21
- 0.2 0 2 cbr 500 ------- 0 0.0 3.0 20 21
r 0.20002 0 2 cbr 500 ------- 0 0.0 3.0 18 18
+ 0.20002 2 3 cbr 500 ------- 0 0.0 3.0 18 18
- 0.20002 2 3 cbr 500 ------- 0 0.0 3.0 18 18
+ 0.20375 1 2 cbr 210 ------- 0 1.0 3.0 1 22
- 0.20375 1 2 cbr 210 ------- 0 1.0 3.0 1 22
+ 0.205 0 2 cbr 500 ------- 0 0.0 3.0 21 23
- 0.205 0 2 cbr 500 ------- 0 0.0 3.0 21 23
r 0.205017 1 2 cbr 210 ------- 0 1.0 3.0 0 20
+ 0.205017 2 3 cbr 210 ------- 0 1.0 3.0 0 20
- 0.205017 2 3 cbr 210 ------- 0 1.0 3.0 0 20
r 0.20502 0 2 cbr 500 ------- 0 0.0 3.0 19 19
+ 0.20502 2 3 cbr 500 ------- 0 0.0 3.0 19 19
- 0.206697 2 3 cbr 500 ------- 0 0.0 3.0 19 19
+ 0.2075 1 2 cbr 210 ------- 0 1.0 3.0 2 24
- 0.2075 1 2 cbr 210 ------- 0 1.0 3.0 2 24
r 0.208767 1 2 cbr 210 ------- 0 1.0 3.0 1 22
+ 0.208767 2 3 cbr 210 ------- 0 1.0 3.0 1 22
+ 0.21 0 2 cbr 500 ------- 0 0.0 3.0 22 25
- 0.21 0 2 cbr 500 ------- 0 0.0 3.0 22 25
r 0.21002 0 2 cbr 500 ------- 0 0.0 3.0 20 21
+ 0.21002 2 3 cbr 500 ------- 0 0.0 3.0 20 21
- 0.210697 2 3 cbr 210 ------- 0 1.0 3.0 1 22
+ 0.21125 1 2 cbr 210 ------- 0 1.0 3.0 3 26
- 0.21125 1 2 cbr 210 ------- 0 1.0 3.0 3 26
- 0.212377 2 3 cbr 500 ------- 0 0.0 3.0 20 21
r 0.212517 1 2 cbr 210 ------- 0 1.0 3.0 2 24
+ 0.212517 2 3 cbr 210 ------- 0 1.0 3.0 2 24
+ 0.215 1 2 cbr 210 ------- 0 1.0 3.0 4 27
- 0.215 1 2 cbr 210 ------- 0 1.0 3.0 4 27
+ 0.215 0 2 cbr 500 ------- 0 0.0 3.0 23 28
- 0.215 0 2 cbr 500 ------- 0 0.0 3.0 23 28
r 0.21502 0 2 cbr 500 ------- 0 0.0 3.0 21 23
+ 0.21502 2 3 cbr 500 ------- 0 0.0 3.0 21 23
r 0.216267 1 2 cbr 210 ------- 0 1.0 3.0 3 26
+ 0.216267 2 3 cbr 210 ------- 0 1.0 3.0 3 26
- 0.216377 2 3 cbr 210 ------- 0 1.0 3.0 2 24
- 0.218057 2 3 cbr 500 ------- 0 0.0 3.0 21 23
+ 0.21875 1 2 cbr 210 ------- 0 1.0 3.0 5 29
- 0.21875 1 2 cbr 210 ------- 0 1.0 3.0 5 29
+ 0.22 0 2 cbr 500 ------- 0 0.0 3.0 24 30
- 0.22 0 2 cbr 500 ------- 0 0.0 3.0 24 30
r 0.220017 1 2 cbr 210 ------- 0 1.0 3.0 4 27
+ 0.220017 2 3 cbr 210 ------- 0 1.0 3.0 4 27
r 0.22002 0 2 cbr 500 ------- 0 0.0 3.0 22 25
+ 0.22002 2 3 cbr 500 ------- 0 0.0 3.0 22 25
- 0.222057 2 3 cbr 210 ------- 0 1.0 3.0 3 26
+ 0.2225 1 2 cbr 210 ------- 0 1.0 3.0 6 31
- 0.2225 1 2 cbr 210 ------- 0 1.0 3.0 6 31
- 0.223737 2 3 cbr 210 ------- 0 1.0 3.0 4 27
r 0.223767 1 2 cbr 210 ------- 0 1.0 3.0 5 29
+ 0.223767 2 3 cbr 210 ------- 0 1.0 3.0 5 29
+ 0.225 0 2 cbr 500 ------- 0 0.0 3.0 25 32
- 0.225 0 2 cbr 500 ------- 0 0.0 3.0 25 32
r 0.22502 0 2 cbr 500 ------- 0 0.0 3.0 23 28
+ 0.22502 2 3 cbr 500 ------- 0 0.0 3.0 23 28
- 0.225417 2 3 cbr 500 ------- 0 0.0 3.0 22 25
+ 0.22625 1 2 cbr 210 ------- 0 1.0 3.0 7 33
- 0.22625 1 2 cbr 210 ------- 0 1.0 3.0 7 33
r 0.227517 1 2 cbr 210 ------- 0 1.0 3.0 6 31
+ 0.227517 2 3 cbr 210 ------- 0 1.0 3.0 6 31
- 0.229417 2 3 cbr 210 ------- 0 1.0 3.0 5 29
+ 0.23 1 2 cbr 210 ------- 0 1.0 3.0 8 34
- 0.23 1 2 cbr 210 ------- 0 1.0 3.0 8 34
+ 0.23 0 2 cbr 500 ------- 0 0.0 3.0 26 35
- 0.23 0 2 cbr 500 ------- 0 0.0 3.0 26 35
r 0.23002 0 2 cbr 500 ------- 0 0.0 3.0 24 30
+ 0.23002 2 3 cbr 500 ------- 0 0.0 3.0 24 30
- 0.231097 2 3 cbr 500 ------- 0 0.0 3.0 23 28
r 0.231267 1 2 cbr 210 ------- 0 1.0 3.0 7 33
+ 0.231267 2 3 cbr 210 ------- 0 1.0 3.0 7 33
+ 0.23375 1 2 cbr 210 ------- 0 1.0 3.0 9 36
- 0.23375 1 2 cbr 210 ------- 0 1.0 3.0 9 36
+ 0.235 0 2 cbr 500 ------- 0 0.0 3.0 27 37
- 0.235 0 2 cbr 500 ------- 0 0.0 3.0 27 37
r 0.235017 1 2 cbr 210 ------- 0 1.0 3.0 8 34
+ 0.235017 2 3 cbr 210 ------- 0 1.0 3.0 8 34
r 0.23502 0 2 cbr 500 ------- 0 0.0 3.0 25 32
+ 0.23502 2 3 cbr 500 ------- 0 0.0 3.0 25 32
- 0.235097 2 3 cbr 210 ------- 0 1.0 3.0 6 31
- 0.236777 2 3 cbr 500 ------- 0 0.0 3.0 24 30
+ 0.2375 1 2 cbr 210 ------- 0 1.0 3.0 10 38
- 0.2375 1 2 cbr 210 ------- 0 1.0 3.0 10 38
r 0.238767 1 2 cbr 210 ------- 0 1.0 3.0 9 36
+ 0.238767 2 3 cbr 210 ------- 0 1.0 3.0 9 36
+ 0.24 0 2 cbr 500 ------- 0 0.0 3.0 28 39
- 0.24 0 2 cbr 500 ------- 0 0.0 3.0 28 39
r 0.24002 0 2 cbr 500 ------- 0 0.0 3.0 26 35
+ 0.24002 2 3 cbr 500 ------- 0 0.0 3.0 26 35
- 0.240777 2 3 cbr 210 ------- 0 1.0 3.0 7 33
+ 0.24125 1 2 cbr 210 ------- 0 1.0 3.0 11 40
- 0.24125 1 2 cbr 210 ------- 0 1.0 3.0 11 40
- 0.242457 2 3 cbr 210 ------- 0 1.0 3.0 8 34
r 0.242517 1 2 cbr 210 ------- 0 1.0 3.0 10 38
+ 0.242517 2 3 cbr 210 ------- 0 1.0 3.0 10 38
- 0.244137 2 3 cbr 500 ------- 0 0.0 3.0 25 32
+ 0.245 1 2 cbr 210 ------- 0 1.0 3.0 12 41
- 0.245 1 2 cbr 210 ------- 0 1.0 3.0 12 41
+ 0.245 0 2 cbr 500 ------- 0 0.0 3.0 29 42
- 0.245 0 2 cbr 500 ------- 0 0.0 3.0 29 42
r 0.24502 0 2 cbr 500 ------- 0 0.0 3.0 27 37
+ 0.24502 2 3 cbr 500 ------- 0 0.0 3.0 27 37
r 0.246267 1 2 cbr 210 ------- 0 1.0 3.0 11 40
+ 0.246267 2 3 cbr 210 ------- 0 1.0 3.0 11 40
- 0.248137 2 3 cbr 210 ------- 0 1.0 3.0 9 36
+ 0.24875 1 2 cbr 210 ------- 0 1.0 3.0 13 43
- 0.24875 1 2 cbr 210 ------- 0 1.0 3.0 13 43
- 0.249817 2 3 cbr 500 ------- 0 0.0 3.0 26 35
+ 0.25 0 2 cbr 500 ------- 0 0.0 3.0 30 44
- 0.25 0 2 cbr 500 ------- 0 0.0 3.0 30 44
r 0.250017 1 2 cbr 210 ------- 0 1.0 3.0 12 41
+ 0.250017 2 3 cbr 210 ------- 0 1.0 3.0 12 41
r 0.25002 0 2 cbr 500 ------- 0 0.0 3.0 28 39
+ 0.25002 2 3 cbr 500 ------- 0 0.0 3.0 28 39
+ 0.2525 1 2 cbr 210 ------- 0 1.0 3.0 14 45
- 0.2525 1 2 cbr 210 ------- 0 1.0 3.0 14 45
r 0.253767 1 2 cbr 210 ------- 0 1.0 3.0 13 43
+ 0.253767 2 3 cbr 210 ------- 0 1.0 3.0 13 43
- 0.253817 2 3 cbr 210 ------- 0 1.0 3.0 10 38
+ 0.255 0 2 cbr 500 ------- 0 0.0 3.0 31 46
- 0.255 0 2 cbr 500 ------- 0 0.0 3.0 31 46
r 0.25502 0 2 cbr 500 ------- 0 0.0 3.0 29 42
+ 0.25502 2 3 cbr 500 ------- 0 0.0 3.0 29 42
- 0.255497 2 3 cbr 500 ------- 0 0.0 3.0 27 37
+ 0.25625 1 2 cbr 210 ------- 0 1.0 3.0 15 47
- 0.25625 1 2 cbr 210 ------- 0 1.0 3.0 15 47
r 0.257517 1 2 cbr 210 ------- 0 1.0 3.0 14 45
+ 0.257517 2 3 cbr 210 ------- 0 1.0 3.0 14 45
- 0.259497 2 3 cbr 210 ------- 0 1.0 3.0 11 40
+ 0.26 1 2 cbr 210 ------- 0 1.0 3.0 16 48
- 0.26 1 2 cbr 210 ------- 0 1.0 3.0 16 48
+ 0.26 0 2 cbr 500 ------- 0 0.0 3.0 32 49
- 0.26 0 2 cbr 500 ------- 0 0.0 3.0 32 49
r 0.26002 0 2 cbr 500 ------- 0 0.0 3.0 30 44
+ 0.26002 2 3 cbr 500 ------- 0 0.0 3.0 30 44
- 0.261177 2 3 cbr 210 ------- 0 1.0 3.0 12 41
r 0.261267 1 2 cbr 210 ------- 0 1.0 3.0 15 47
+ 0.261267 2 3 cbr 210 ------- 0 1.0 3.0 15 47
- 0.262857 2 3 cbr 500 ------- 0 0.0 3.0 28 39
+ 0.26375 1 2 cbr 210 ------- 0 1.0 3.0 17 50
- 0.26375 1 2 cbr 210 ------- 0 1.0 3.0 17 50
+ 0.265 0 2 cbr 500 ------- 0 0.0 3.0 33 51
- 0.265 0 2 cbr 500 ------- 0 0.0 3.0 33 51
r 0.265017 1 2 cbr 210 ------- 0 1.0 3.0 16 48
+ 0.265017 2 3 cbr 210 ------- 0 1.0 3.0 16 48
r 0.26502 0 2 cbr 500 ------- 0 0.0 3.0 31 46
+ 0.26502 2 3 cbr 500 ------- 0 0.0 3.0 31 46
- 0.266857 2 3 cbr 210 ------- 0 1.0 3.0 13 43
+ 0.2675 1 2 cbr 210 ------- 0 1.0 3.0 18 52
- 0.2675 1 2 cbr 210 ------- 0 1.0 3.0 18 52
- 0.268537 2 3 cbr 500 ------- 0 0.0 3.0 29 42
r 0.268767 1 2 cbr 210 ------- 0 1.0 3.0 17 50
+ 0.268767 2 3 cbr 210 ------- 0 1.0 3.0 17 50
+ 0.27 0 2 cbr 500 ------- 0 0.0 3.0 34 53
- 0.27 0 2 cbr 500 ------- 0 0.0 3.0 34 53
r 0.27002 0 2 cbr 500 ------- 0 0.0 3.0 32 49
+ 0.27002 2 3 cbr 500 ------- 0 0.0 3.0 32 49
+ 0.27125 1 2 cbr 210 ------- 0 1.0 3.0 19 54
- 0.27125 1 2 cbr 210 ------- 0 1.0 3.0 19 54
r 0.272517 1 2 cbr 210 ------- 0 1.0 3.0 18 52
+ 0.272517 2 3 cbr 210 ------- 0 1.0 3.0 18 52
- 0.272537 2 3 cbr 210 ------- 0 1.0 3.0 14 45
- 0.274217 2 3 cbr 500 ------- 0 0.0 3.0 30 44
+ 0.275 1 2 cbr 210 ------- 0 1.0 3.0 20 55
- 0.275 1 2 cbr 210 ------- 0 1.0 3.0 20 55
+ 0.275 0 2 cbr 500 ------- 0 0.0 3.0 35 56
- 0.275 0 2 cbr 500 ------- 0 0.0 3.0 35 56
r 0.27502 0 2 cbr 500 ------- 0 0.0 3.0 33 51
+ 0.27502 2 3 cbr 500 ------- 0 0.0 3.0 33 51
r 0.276267 1 2 cbr 210 ------- 0 1.0 3.0 19 54
+ 0.276267 2 3 cbr 210 ------- 0 1.0 3.0 19 54
- 0.278217 2 3 cbr 210 ------- 0 1.0 3.0 15 47
+ 0.27875 1 2 cbr 210 ------- 0 1.0 3.0 21 57
- 0.27875 1 2 cbr 210 ------- 0 1.0 3.0 21 57
- 0.279897 2 3 cbr 210 ------- 0 1.0 3.0 16 48
+ 0.28 0 2 cbr 500 ------- 0 0.0 3.0 36 58
- 0.28 0 2 cbr 500 ------- 0 0.0 3.0 36 58
r 0.280017 1 2 cbr 210 ------- 0 1.0 3.0 20 55
+ 0.280017 2 3 cbr 210 ------- 0 1.0 3.0 20 55
r 0.28002 0 2 cbr 500 ------- 0 0.0 3.0 34 53
+ 0.28002 2 3 cbr 500 ------- 0 0.0 3.0 34 53
- 0.281577 2 3 cbr 500 ------- 0 0.0 3.0 31 46
+ 0.2825 1 2 cbr 210 ------- 0 1.0 3.0 22 59
- 0.2825 1 2 cbr 210 ------- 0 1.0 3.0 22 59
r 0.283767 1 2 cbr 210 ------- 0 1.0 3.0 21 57
+ 0.283767 2 3 cbr 210 ------- 0 1.0 3.0 21 57
+ 0.285 0 2 cbr 500 ------- 0 0.0 3.0 37 60
- 0.285 0 2 cbr 500 ------- 0 0.0 3.0 37 60
r 0.28502 0 2 cbr 500 ------- 0 0.0 3.0 35 56
+ 0.28502 2 3 cbr 500 ------- 0 0.0 3.0 35 56
- 0.285577 2 3 cbr 210 ------- 0 1.0 3.0 17 50
+ 0.28625 1 2 cbr 210 ------- 0 1.0 3.0 23 61
- 0.28625 1 2 cbr 210 ------- 0 1.0 3.0 23 61
- 0.287257 2 3 cbr 500 ------- 0 0.0 3.0 32 49
r 0.287517 1 2 cbr 210 ------- 0 1.0 3.0 22 59
+ 0.287517 2 3 cbr 210 ------- 0 1.0 3.0 22 59
+ 0.29 1 2 cbr 210 ------- 0 1.0 3.0 24 62
- 0.29 1 2 cbr 210 ------- 0 1.0 3.0 24 62
+ 0.29 0 2 cbr 500 ------- 0 0.0 3.0 38 63
- 0.29 0 2 cbr 500 ------- 0 0.0 3.0 38 63
r 0.29002 0 2 cbr 500 ------- 0 0.0 3.0 36 58
+ 0.29002 2 3 cbr 500 ------- 0 0.0 3.0 36 58
- 0.291257 2 3 cbr 210 ------- 0 1.0 3.0 18 52
r 0.291267 1 2 cbr 210 ------- 0 1.0 3.0 23 61
+ 0.291267 2 3 cbr 210 ------- 0 1.0 3.0 23 61
- 0.292937 2 3 cbr 500 ------- 0 0.0 3.0 33 51
+ 0.29375 1 2 cbr 210 ------- 0 1.0 3.0 25 64
- 0.29375 1 2 cbr 210 ------- 0 1.0 3.0 25 64
+ 0.295 0 2 cbr 500 ------- 0 0.0 3.0 39 65
- 0.295 0 2 cbr 500 ------- 0 0.0 3.0 39 65
r 0.295017 1 2 cbr 210 ------- 0 1.0 3.0 24 62
+ 0.295017 2 3 cbr 210 ------- 0 1.0 3.0 24 62
r 0.29502 0 2 cbr 500 ------- 0 0.0 3.0 37 60
+ 0.29502 2 3 cbr 500 ------- 0 0.0 3.0 37 60
- 0.296937 2 3 cbr 210 ------- 0 1.0 3.0 19 54
+ 0.2975 1 2 cbr 210 ------- 0 1.0 3.0 26 66
- 0.2975 1 2 cbr 210 ------- 0 1.0 3.0 26 66
- 0.298617 2 3 cbr 210 ------- 0 1.0 3.0 20 55
r 0.298767 1 2 cbr 210 ------- 0 1.0 3.0 25 64
+ 0.298767 2 3 cbr 210 ------- 0 1.0 3.0 25 64
+ 0.3 0 2 cbr 500 ------- 0 0.0 3.0 40 67
- 0.3 0 2 cbr 500 ------- 0 0.0 3.0 40 67
r 0.30002 0 2 cbr 500 ------- 0 0.0 3.0 38 63
+ 0.30002 2 3 cbr 500 ------- 0 0.0 3.0 38 63
- 0.300297 2 3 cbr 500 ------- 0 0.0 3.0 34 53
+ 0.30125 1 2 cbr 210 ------- 0 1.0 3.0 27 68
- 0.30125 1 2 cbr 210 ------- 0 1.0 3.0 27 68
r 0.302517 1 2 cbr 210 ------- 0 1.0 3.0 26 66
+ 0.302517 2 3 cbr 210 ------- 0 1.0 3.0 26 66
- 0.304297 2 3 cbr 210 ------- 0 1.0 3.0 21 57
+ 0.305 1 2 cbr 210 ------- 0 1.0 3.0 28 69
- 0.305 1 2 cbr 210 ------- 0 1.0 3.0 28 69
+ 0.305 0 2 cbr 500 ------- 0 0.0 3.0 41 70
- 0.305 0 2 cbr 500 ------- 0 0.0 3.0 41 70
r 0.30502 0 2 cbr 500 ------- 0 0.0 3.0 39 65
+ 0.30502 2 3 cbr 500 ------- 0 0.0 3.0 39 65
- 0.305977 2 3 cbr 500 ------- 0 0.0 3.0 35 56
r 0.306267 1 2 cbr 210 ------- 0 1.0 3.0 27 68
+ 0.306267 2 3 cbr 210 ------- 0 1.0 3.0 27 68
+ 0.30875 1 2 cbr 210 ------- 0 1.0 3.0 29 71
- 0.30875 1 2 cbr 210 ------- 0 1.0 3.0 29 71
- 0.309977 2 3 cbr 210 ------- 0 1.0 3.0 22 59
+ 0.31 0 2 cbr 500 ------- 0 0.0 3.0 42 72
- 0.31 0 2 cbr 500 ------- 0 0.0 3.0 42 72
r 0.310017 1 2 cbr 210 ------- 0 1.0 3.0 28 69
+ 0.310017 2 3 cbr 210 ------- 0 1.0 3.0 28 69
r 0.31002 0 2 cbr 500 ------- 0 0.0 3.0 40 67
+ 0.31002 2 3 cbr 500 ------- 0 0.0 3.0 40 67
- 0.311657 2 3 cbr 500 ------- 0 0.0 3.0 36 58
+ 0.3125 1 2 cbr 210 ------- 0 1.0 3.0 30 73
- 0.3125 1 2 cbr 210 ------- 0 1.0 3.0 30 73
r 0.313767 1 2 cbr 210 ------- 0 1.0 3.0 29 71
+ 0.313767 2 3 cbr 210 ------- 0 1.0 3.0 29 71
+ 0.315 0 2 cbr 500 ------- 0 0.0 3.0 43 74
- 0.315 0 2 cbr 500 ------- 0 0.0 3.0 43 74
r 0.31502 0 2 cbr 500 ------- 0 0.0 3.0 41 70
+ 0.31502 2 3 cbr 500 ------- 0 0.0 3.0 41 70
- 0.315657 2 3 cbr 210 ------- 0 1.0 3.0 23 61
+ 0.31625 1 2 cbr 210 ------- 0 1.0 3.0 31 75
- 0.31625 1 2 cbr 210 ------- 0 1.0 3.0 31 75
- 0.317337 2 3 cbr 210 ------- 0 1.0 3.0 24 62
r 0.317517 1 2 cbr 210 ------- 0 1.0 3.0 30 73
+ 0.317517 2 3 cbr 210 ------- 0 1.0 3.0 30 73
- 0.319017 2 3 cbr 500 ------- 0 0.0 3.0 37 60
+ 0.32 1 2 cbr 210 ------- 0 1.0 3.0 32 76
- 0.32 1 2 cbr 210 ------- 0 1.0 3.0 32 76
+ 0.32 0 2 cbr 500 ------- 0 0.0 3.0 44 77
- 0.32 0 2 cbr 500 ------- 0 0.0 3.0 44 77
r 0.32002 0 2 cbr 500 ------- 0 0.0 3.0 42 72
+ 0.32002 2 3 cbr 500 ------- 0 0.0 3.0 42 72
r 0.321267 1 2 cbr 210 ------- 0 1.0 3.0 31 75
+ 0.321267 2 3 cbr 210 ------- 0 1.0 3.0 31 75
- 0.323017 2 3 cbr 210 ------- 0 1.0 3.0 25 64
+ 0.32375 1 2 cbr 210 ------- 0 1.0 3.0 33 78
- 0.32375 1 2 cbr 210 ------- 0 1.0 3.0 33 78
- 0.324697 2 3 cbr 500 ------- 0 0.0 3.0 38 63
+ 0.325 0 2 cbr 500 ------- 0 0.0 3.0 45 79
- 0.325 0 2 cbr 500 ------- 0 0.0 3.0 45 79
r 0.325017 1 2 cbr 210 ------- 0 1.0 3.0 32 76
+ 0.325017 2 3 cbr 210 ------- 0 1.0 3.0 32 76
r 0.32502 0 2 cbr 500 ------- 0 0.0 3.0 43 74
+ 0.32502 2 3 cbr 500 ------- 0 0.0 3.0 43 74
+ 0.3275 1 2 cbr 210 ------- 0 1.0 3.0 34 80
- 0.3275 1 2 cbr 210 ------- 0 1.0 3.0 34 80
- 0.328697 2 3 cbr 210 ------- 0 1.0 3.0 26 66
r 0.328767 1 2 cbr 210 ------- 0 1.0 3.0 33 78
+ 0.328767 2 3 cbr 210 ------- 0 1.0 3.0 33 78
+ 0.33 0 2 cbr 500 ------- 0 0.0 3.0 46 81
- 0.33 0 2 cbr 500 ------- 0 0.0 3.0 46 81
r 0.33002 0 2 cbr 500 ------- 0 0.0 3.0 44 77
+ 0.33002 2 3 cbr 500 ------- 0 0.0 3.0 44 77
- 0.330377 2 3 cbr 500 ------- 0 0.0 3.0 39 65
+ 0.33125 1 2 cbr 210 ------- 0 1.0 3.0 35 82
- 0.33125 1 2 cbr 210 ------- 0 1.0 3.0 35 82
r 0.332517 1 2 cbr 210 ------- 0 1.0 3.0 34 80
+ 0.332517 2 3 cbr 210 ------- 0 1.0 3.0 34 80
- 0.334377 2 3 cbr 210 ------- 0 1.0 3.0 27 68
+ 0.335 1 2 cbr 210 ------- 0 1.0 3.0 36 83
- 0.335 1 2 cbr 210 ------- 0 1.0 3.0 36 83
+ 0.335 0 2 cbr 500 ------- 0 0.0 3.0 47 84
- 0.335 0 2 cbr 500 ------- 0 0.0 3.0 47 84
r 0.33502 0 2 cbr 500 ------- 0 0.0 3.0 45 79
+ 0.33502 2 3 cbr 500 ------- 0 0.0 3.0 45 79
- 0.336057 2 3 cbr 210 ------- 0 1.0 3.0 28 69
r 0.336267 1 2 cbr 210 ------- 0 1.0 3.0 35 82
+ 0.336267 2 3 cbr 210 ------- 0 1.0 3.0 35 82
- 0.337737 2 3 cbr 500 ------- 0 0.0 3.0 40 67
+ 0.33875 1 2 cbr 210 ------- 0 1.0 3.0 37 85
- 0.33875 1 2 cbr 210 ------- 0 1.0 3.0 37 85
+ 0.34 0 2 cbr 500 ------- 0 0.0 3.0 48 86
- 0.34 0 2 cbr 500 ------- 0 0.0 3.0 48 86
r 0.340017 1 2 cbr 210 ------- 0 1.0 3.0 36 83
+ 0.340017 2 3 cbr 210 ------- 0 1.0 3.0 36 83
r 0.34002 0 2 cbr 500 ------- 0 0.0 3.0 46 81
+ 0.34002 2 3 cbr 500 ------- 0 0.0 3.0 46 81
- 0.341737 2 3 cbr 210 ------- 0 1.0 3.0 29 71
+ 0.3425 1 2 cbr 210 ------- 0 1.0 3.0 38 87
- 0.3425 1 2 cbr 210 ------- 0 1.0 3.0 38 87
- 0.343417 2 3 cbr 500 ------- 0 0.0 3.0 41 70
r 0.343767 1 2 cbr 210 ------- 0 1.0 3.0 37 85
+ 0.343767 2 3 cbr 210 ------- 0 1.0 3.0 37 85
+ 0.345 0 2 cbr 500 ------- 0 0.0 3.0 49 88
- 0.345 0 2 cbr 500 ------- 0 0.0 3.0 49 88
r 0.34502 0 2 cbr 500 ------- 0 0.0 3.0 47 84
+ 0.34502 2 3 cbr 500 ------- 0 0.0 3.0 47 84
+ 0.34625 1 2 cbr 210 ------- 0 1.0 3.0 39 89
- 0.34625 1 2 cbr 210 ------- 0 1.0 3.0 39 89
- 0.347417 2 3 cbr 210 ------- 0 1.0 3.0 30 73
r 0.347517 1 2 cbr 210 ------- 0 1.0 3.0 38 87
+ 0.347517 2 3 cbr 210 ------- 0 1.0 3.0 38 87
- 0.349097 2 3 cbr 500 ------- 0 0.0 3.0 42 72
+ 0.35 1 2 cbr 210 ------- 0 1.0 3.0 40 90
- 0.35 1 2 cbr 210 ------- 0 1.0 3.0 40 90
+ 0.35 0 2 cbr 500 ------- 0 0.0 3.0 50 91
- 0.35 0 2 cbr 500 ------- 0 0.0 3.0 50 91
r 0.35002 0 2 cbr 500 ------- 0 0.0 3.0 48 86
+ 0.35002 2 3 cbr 500 ------- 0 0.0 3.0 48 86
r 0.351267 1 2 cbr 210 ------- 0 1.0 3.0 39 89
+ 0.351267 2 3 cbr 210 ------- 0 1.0 3.0 39 89
- 0.353097 2 3 cbr 210 ------- 0 1.0 3.0 31 75
+ 0.35375 1 2 cbr 210 ------- 0 1.0 3.0 41 92
- 0.35375 1 2 cbr 210 ------- 0 1.0 3.0 41 92
- 0.354777 2 3 cbr 210 ------- 0 1.0 3.0 32 76
+ 0.355 0 2 cbr 500 ------- 0 0.0 3.0 51 93
- 0.355 0 2 cbr 500 ------- 0 0.0 3.0 51 93
r 0.355017 1 2 cbr 210 ------- 0 1.0 3.0 40 90
+ 0.355017 2 3 cbr 210 ------- 0 1.0 3.0 40 90
r 0.35502 0 2 cbr 500 ------- 0 0.0 3.0 49 88
+ 0.35502 2 3 cbr 500 ------- 0 0.0 3.0 49 88
- 0.356457 2 3 cbr 500 ------- 0 0.0 3.0 43 74
+ 0.3575 1 2 cbr 210 ------- 0 1.0 3.0 42 94
- 0.3575 1 2 cbr 210 ------- 0 1.0 3.0 42 94
r 0.358767 1 2 cbr 210 ------- 0 1.0 3.0 41 92
+ 0.358767 2 3 cbr 210 ------- 0 1.0 3.0 41 92
+ 0.36 0 2 cbr 500 ------- 0 0.0 3.0 52 95
- 0.36 0 2 cbr 500 ------- 0 0.0 3.0 52 95
r 0.36002 0 2 cbr 500 ------- 0 0.0 3.0 50 91
+ 0.36002 2 3 cbr 500 ------- 0 0.0 3.0 50 91
- 0.360457 2 3 cbr 210 ------- 0 1.0 3.0 33 78
+ 0.36125 1 2 cbr 210 ------- 0 1.0 3.0 43 96
- 0.36125 1 2 cbr 210 ------- 0 1.0 3.0 43 96
- 0.362137 2 3 cbr 500 ------- 0 0.0 3.0 44 77
r 0.362517 1 2 cbr 210 ------- 0 1.0 3.0 42 94
+ 0.362517 2 3 cbr 210 ------- 0 1.0 3.0 42 94
+ 0.365 1 2 cbr 210 ------- 0 1.0 3.0 44 97
- 0.365 1 2 cbr 210 ------- 0 1.0 3.0 44 97
+ 0.365 0 2 cbr 500 ------- 0 0.0 3.0 53 98
- 0.365 0 2 cbr 500 ------- 0 0.0 3.0 53 98
r 0.36502 0 2 cbr 500 ------- 0 0.0 3.0 51 93
+ 0.36502 2 3 cbr 500 ------- 0 0.0 3.0 51 93
- 0.366137 2 3 cbr 210 ------- 0 1.0 3.0 34 80
r 0.366267 1 2 cbr 210 ------- 0 1.0 3.0 43 96
+ 0.366267 2 3 cbr 210 ------- 0 1.0 3.0 43 96
- 0.367817 2 3 cbr 500 ------- 0 0.0 3.0 45 79
+ 0.36875 1 2 cbr 210 ------- 0 1.0 3.0 45 99
- 0.36875 1 2 cbr 210 ------- 0 1.0 3.0 45 99
+ 0.37 0 2 cbr 500 ------- 0 0.0 3.0 54 100
- 0.37 0 2 cbr 500 ------- 0 0.0 3.0 54 100
r 0.370017 1 2 cbr 210 ------- 0 1.0 3.0 44 97
+ 0.370017 2 3 cbr 210 ------- 0 1.0 3.0 44 97
r 0.37002 0 2 cbr 500 ------- 0 0.0 3.0 52 95
+ 0.37002 2 3 cbr 500 ------- 0 0.0 3.0 52 95
- 0.371817 2 3 cbr 210 ------- 0 1.0 3.0 35 82
+ 0.3725 1 2 cbr 210 ------- 0 1.0 3.0 46 101
- 0.3725 1 2 cbr 210 ------- 0 1.0 3.0 46 101
- 0.373497 2 3 cbr 210 ------- 0 1.0 3.0 36 83
r 0.373767 1 2 cbr 210 ------- 0 1.0 3.0 45 99
+ 0.373767 2 3 cbr 210 ------- 0 1.0 3.0 45 99
+ 0.375 0 2 cbr 500 ------- 0 0.0 3.0 55 102
- 0.375 0 2 cbr 500 ------- 0 0.0 3.0 55 102
r 0.37502 0 2 cbr 500 ------- 0 0.0 3.0 53 98
+ 0.37502 2 3 cbr 500 ------- 0 0.0 3.0 53 98
- 0.375177 2 3 cbr 500 ------- 0 0.0 3.0 46 81
+ 0.37625 1 2 cbr 210 ------- 0 1.0 3.0 47 103
- 0.37625 1 2 cbr 210 ------- 0 1.0 3.0 47 103
r 0.377517 1 2 cbr 210 ------- 0 1.0 3.0 46 101
+ 0.377517 2 3 cbr 210 ------- 0 1.0 3.0 46 101
- 0.379177 2 3 cbr 210 ------- 0 1.0 3.0 37 85
+ 0.38 1 2 cbr 210 ------- 0 1.0 3.0 48 104
- 0.38 1 2 cbr 210 ------- 0 1.0 3.0 48 104
+ 0.38 0 2 cbr 500 ------- 0 0.0 3.0 56 105
- 0.38 0 2 cbr 500 ------- 0 0.0 3.0 56 105
r 0.38002 0 2 cbr 500 ------- 0 0.0 3.0 54 100
+ 0.38002 2 3 cbr 500 ------- 0 0.0 3.0 54 100
- 0.380857 2 3 cbr 500 ------- 0 0.0 3.0 47 84
r 0.381267 1 2 cbr 210 ------- 0 1.0 3.0 47 103
+ 0.381267 2 3 cbr 210 ------- 0 1.0 3.0 47 103
+ 0.38375 1 2 cbr 210 ------- 0 1.0 3.0 49 106
- 0.38375 1 2 cbr 210 ------- 0 1.0 3.0 49 106
- 0.384857 2 3 cbr 210 ------- 0 1.0 3.0 38 87
+ 0.385 0 2 cbr 500 ------- 0 0.0 3.0 57 107
- 0.385 0 2 cbr 500 ------- 0 0.0 3.0 57 107
r 0.385017 1 2 cbr 210 ------- 0 1.0 3.0 48 104
+ 0.385017 2 3 cbr 210 ------- 0 1.0 3.0 48 104
r 0.38502 0 2 cbr 500 ------- 0 0.0 3.0 55 102
+ 0.38502 2 3 cbr 500 ------- 0 0.0 3.0 55 102
- 0.386537 2 3 cbr 500 ------- 0 0.0 3.0 48 86
+ 0.3875 1 2 cbr 210 ------- 0 1.0 3.0 50 108
- 0.3875 1 2 cbr 210 ------- 0 1.0 3.0 50 108
r 0.388767 1 2 cbr 210 ------- 0 1.0 3.0 49 106
+ 0.388767 2 3 cbr 210 ------- 0 1.0 3.0 49 106
+ 0.39 0 2 cbr 500 ------- 0 0.0 3.0 58 109
- 0.39 0 2 cbr 500 ------- 0 0.0 3.0 58 109
r 0.39002 0 2 cbr 500 ------- 0 0.0 3.0 56 105
+ 0.39002 2 3 cbr 500 ------- 0 0.0 3.0 56 105
- 0.390537 2 3 cbr 210 ------- 0 1.0 3.0 39 89
+ 0.39125 1 2 cbr 210 ------- 0 1.0 3.0 51 110
- 0.39125 1 2 cbr 210 ------- 0 1.0 3.0 51 110
- 0.392217 2 3 cbr 210 ------- 0 1.0 3.0 40 90
r 0.392517 1 2 cbr 210 ------- 0 1.0 3.0 50 108
+ 0.392517 2 3 cbr 210 ------- 0 1.0 3.0 50 108
- 0.393897 2 3 cbr 500 ------- 0 0.0 3.0 49 88
+ 0.395 1 2 cbr 210 ------- 0 1.0 3.0 52 111
- 0.395 1 2 cbr 210 ------- 0 1.0 3.0 52 111
+ 0.395 0 2 cbr 500 ------- 0 0.0 3.0 59 112
- 0.395 0 2 cbr 500 ------- 0 0.0 3.0 59 112
r 0.39502 0 2 cbr 500 ------- 0 0.0 3.0 57 107
+ 0.39502 2 3 cbr 500 ------- 0 0.0 3.0 57 107
r 0.396267 1 2 cbr 210 ------- 0 1.0 3.0 51 110
+ 0.396267 2 3 cbr 210 ------- 0 1.0 3.0 51 110
- 0.397897 2 3 cbr 210 ------- 0 1.0 3.0 41 92
+ 0.39875 1 2 cbr 210 ------- 0 1.0 3.0 53 113
- 0.39875 1 2 cbr 210 ------- 0 1.0 3.0 53 113
- 0.399577 2 3 cbr 500 ------- 0 0.0 3.0 50 91
+ 0.4 0 2 cbr 500 ------- 0 0.0 3.0 60 114
- 0.4 0 2 cbr 500 ------- 0 0.0 3.0 60 114
r 0.400017 1 2 cbr 210 ------- 0 1.0 3.0 52 111
+ 0.400017 2 3 cbr 210 ------- 0 1.0 3.0 52 111
r 0.40002 0 2 cbr 500 ------- 0 0.0 3.0 58 109
+ 0.40002 2 3 cbr 500 ------- 0 0.0 3.0 58 109
+ 0.4025 1 2 cbr 210 ------- 0 1.0 3.0 54 115
- 0.4025 1 2 cbr 210 ------- 0 1.0 3.0 54 115
- 0.403577 2 3 cbr 210 ------- 0 1.0 3.0 42 94
r 0.403767 1 2 cbr 210 ------- 0 1.0 3.0 53 113
+ 0.403767 2 3 cbr 210 ------- 0 1.0 3.0 53 113
+ 0.405 0 2 cbr 500 ------- 0 0.0 3.0 61 116
- 0.405 0 2 cbr 500 ------- 0 0.0 3.0 61 116
r 0.40502 0 2 cbr 500 ------- 0 0.0 3.0 59 112
+ 0.40502 2 3 cbr 500 ------- 0 0.0 3.0 59 112
- 0.405257 2 3 cbr 500 ------- 0 0.0 3.0 51 93
+ 0.40625 1 2 cbr 210 ------- 0 1.0 3.0 55 117
- 0.40625 1 2 cbr 210 ------- 0 1.0 3.0 55 117
r 0.407517 1 2 cbr 210 ------- 0 1.0 3.0 54 115
+ 0.407517 2 3 cbr 210 ------- 0 1.0 3.0 54 115
- 0.409257 2 3 cbr 210 ------- 0 1.0 3.0 43 96
+ 0.41 1 2 cbr 210 ------- 0 1.0 3.0 56 118
- 0.41 1 2 cbr 210 ------- 0 1.0 3.0 56 118
+ 0.41 0 2 cbr 500 ------- 0 0.0 3.0 62 119
- 0.41 0 2 cbr 500 ------- 0 0.0 3.0 62 119
r 0.41002 0 2 cbr 500 ------- 0 0.0 3.0 60 114
+ 0.41002 2 3 cbr 500 ------- 0 0.0 3.0 60 114
- 0.410937 2 3 cbr 210 ------- 0 1.0 3.0 44 97
r 0.411267 1 2 cbr 210 ------- 0 1.0 3.0 55 117
+ 0.411267 2 3 cbr 210 ------- 0 1.0 3.0 55 117
- 0.412617 2 3 cbr 500 ------- 0 0.0 3.0 52 95
+ 0.41375 1 2 cbr 210 ------- 0 1.0 3.0 57 120
- 0.41375 1 2 cbr 210 ------- 0 1.0 3.0 57 120
+ 0.415 0 2 cbr 500 ------- 0 0.0 3.0 63 121
- 0.415 0 2 cbr 500 ------- 0 0.0 3.0 63 121
r 0.415017 1 2 cbr 210 ------- 0 1.0 3.0 56 118
+ 0.415017 2 3 cbr 210 ------- 0 1.0 3.0 56 118
r 0.41502 0 2 cbr 500 ------- 0 0.0 3.0 61 116
+ 0.41502 2 3 cbr 500 ------- 0 0.0 3.0 61 116
- 0.416617 2 3 cbr 210 ------- 0 1.0 3.0 45 99
+ 0.4175 1 2 cbr 210 ------- 0 1.0 3.0 58 122
- 0.4175 1 2 cbr 210 ------- 0 1.0 3.0 58 122
- 0.418297 2 3 cbr 500 ------- 0 0.0 3.0 53 98
r 0.418767 1 2 cbr 210 ------- 0 1.0 3.0 57 120
+ 0.418767 2 3 cbr 210 ------- 0 1.0 3.0 57 120
+ 0.42 0 2 cbr 500 ------- 0 0.0 3.0 64 123
- 0.42 0 2 cbr 500 ------- 0 0.0 3.0 64 123
r 0.42002 0 2 cbr 500 ------- 0 0.0 3.0 62 119
+ 0.42002 2 3 cbr 500 ------- 0 0.0 3.0 62 119
+ 0.42125 1 2 cbr 210 ------- 0 1.0 3.0 59 124
- 0.42125 1 2 cbr 210 ------- 0 1.0 3.0 59 124
- 0.422297 2 3 cbr 210 ------- 0 1.0 3.0 46 101
r 0.422517 1 2 cbr 210 ------- 0 1.0 3.0 58 122
+ 0.422517 2 3 cbr 210 ------- 0 1.0 3.0 58 122
- 0.423977 2 3 cbr 500 ------- 0 0.0 3.0 54 100
+ 0.425 1 2 cbr 210 ------- 0 1.0 3.0 60 125
- 0.425 1 2 cbr 210 ------- 0 1.0 3.0 60 125
+ 0.425 0 2 cbr 500 ------- 0 0.0 3.0 65 126
- 0.425 0 2 cbr 500 ------- 0 0.0 3.0 65 126
r 0.42502 0 2 cbr 500 ------- 0 0.0 3.0 63 121
+ 0.42502 2 3 cbr 500 ------- 0 0.0 3.0 63 121
r 0.426267 1 2 cbr 210 ------- 0 1.0 3.0 59 124
+ 0.426267 2 3 cbr 210 ------- 0 1.0 3.0 59 124
- 0.427977 2 3 cbr 210 ------- 0 1.0 3.0 47 103
+ 0.42875 1 2 cbr 210 ------- 0 1.0 3.0 61 127
- 0.42875 1 2 cbr 210 ------- 0 1.0 3.0 61 127
- 0.429657 2 3 cbr 210 ------- 0 1.0 3.0 48 104
+ 0.43 0 2 cbr 500 ------- 0 0.0 3.0 66 128
- 0.43 0 2 cbr 500 ------- 0 0.0 3.0 66 128
r 0.430017 1 2 cbr 210 ------- 0 1.0 3.0 60 125
+ 0.430017 2 3 cbr 210 ------- 0 1.0 3.0 60 125
r 0.43002 0 2 cbr 500 ------- 0 0.0 3.0 64 123
+ 0.43002 2 3 cbr 500 ------- 0 0.0 3.0 64 123
- 0.431337 2 3 cbr 500 ------- 0 0.0 3.0 55 102
+ 0.4325 1 2 cbr 210 ------- 0 1.0 3.0 62 129
- 0.4325 1 2 cbr 210 ------- 0 1.0 3.0 62 129
r 0.433767 1 2 cbr 210 ------- 0 1.0 3.0 61 127
+ 0.433767 2 3 cbr 210 ------- 0 1.0 3.0 61 127
+ 0.435 0 2 cbr 500 ------- 0 0.0 3.0 67 130
- 0.435 0 2 cbr 500 ------- 0 0.0 3.0 67 130
r 0.43502 0 2 cbr 500 ------- 0 0.0 3.0 65 126
+ 0.43502 2 3 cbr 500 ------- 0 0.0 3.0 65 126
- 0.435337 2 3 cbr 210 ------- 0 1.0 3.0 49 106
+ 0.43625 1 2 cbr 210 ------- 0 1.0 3.0 63 131
- 0.43625 1 2 cbr 210 ------- 0 1.0 3.0 63 131
- 0.437017 2 3 cbr 500 ------- 0 0.0 3.0 56 105
r 0.437517 1 2 cbr 210 ------- 0 1.0 3.0 62 129
+ 0.437517 2 3 cbr 210 ------- 0 1.0 3.0 62 129
+ 0.44 1 2 cbr 210 ------- 0 1.0 3.0 64 132
- 0.44 1 2 cbr 210 ------- 0 1.0 3.0 64 132
+ 0.44 0 2 cbr 500 ------- 0 0.0 3.0 68 133
- 0.44 0 2 cbr 500 ------- 0 0.0 3.0 68 133
r 0.44002 0 2 cbr 500 ------- 0 0.0 3.0 66 128
+ 0.44002 2 3 cbr 500 ------- 0 0.0 3.0 66 128
- 0.441017 2 3 cbr 210 ------- 0 1.0 3.0 50 108
r 0.441267 1 2 cbr 210 ------- 0 1.0 3.0 63 131
+ 0.441267 2 3 cbr 210 ------- 0 1.0 3.0 63 131
- 0.442697 2 3 cbr 500 ------- 0 0.0 3.0 57 107
+ 0.44375 1 2 cbr 210 ------- 0 1.0 3.0 65 134
- 0.44375 1 2 cbr 210 ------- 0 1.0 3.0 65 134
+ 0.445 0 2 cbr 500 ------- 0 0.0 3.0 69 135
- 0.445 0 2 cbr 500 ------- 0 0.0 3.0 69 135
r 0.445017 1 2 cbr 210 ------- 0 1.0 3.0 64 132
+ 0.445017 2 3 cbr 210 ------- 0 1.0 3.0 64 132
r 0.44502 0 2 cbr 500 ------- 0 0.0 3.0 67 130
+ 0.44502 2 3 cbr 500 ------- 0 0.0 3.0 67 130
- 0.446697 2 3 cbr 210 ------- 0 1.0 3.0 51 110
+ 0.4475 1 2 cbr 210 ------- 0 1.0 3.0 66 136
- 0.4475 1 2 cbr 210 ------- 0 1.0 3.0 66 136
- 0.448377 2 3 cbr 210 ------- 0 1.0 3.0 52 111
r 0.448767 1 2 cbr 210 ------- 0 1.0 3.0 65 134
+ 0.448767 2 3 cbr 210 ------- 0 1.0 3.0 65 134
+ 0.45 0 2 cbr 500 ------- 0 0.0 3.0 70 137
- 0.45 0 2 cbr 500 ------- 0 0.0 3.0 70 137
r 0.45002 0 2 cbr 500 ------- 0 0.0 3.0 68 133
+ 0.45002 2 3 cbr 500 ------- 0 0.0 3.0 68 133