+ 0.1 0 4 ping 50000 ------- 0 0.0 5.0 -1 0
- 0.1 0 4 ping 50000 ------- 0 0.0 5.0 -1 0
+ 0.1 2 4 ping 30000 ------- 0 2.0 3.0 -1 1
- 0.1 2 4 ping 30000 ------- 0 2.0 3.0 -1 1
r 0.10112 2 4 ping 30000 ------- 0 2.0 3.0 -1 1
+ 0.10112 4 3 ping 30000 ------- 0 2.0 3.0 -1 1
- 0.10112 4 3 ping 30000 ------- 0 2.0 3.0 -1 1
r 0.101398 0 4 ping 50000 ------- 0 0.0 5.0 -1 0
+ 0.101398 4 5 ping 50000 ------- 0 0.0 5.0 -1 0
- 0.101398 4 5 ping 50000 ------- 0 0.0 5.0 -1 0
r 0.10332 4 3 ping 30000 ------- 0 2.0 3.0 -1 1
+ 0.10332 3 4 ping 64 ------- 0 3.0 2.0 -1 2
- 0.10332 3 4 ping 64 ------- 0 3.0 2.0 -1 2
r 0.104323 3 4 ping 64 ------- 0 3.0 2.0 -1 2
+ 0.104323 4 2 ping 64 ------- 0 3.0 2.0 -1 2
- 0.104323 4 2 ping 64 ------- 0 3.0 2.0 -1 2
r 0.105323 4 2 ping 64 ------- 0 3.0 2.0 -1 2
+ 0.2 0 4 ping 50000 ------- 0 0.0 5.0 -1 3
- 0.2 0 4 ping 50000 ------- 0 0.0 5.0 -1 3
r 0.201398 0 4 ping 50000 ------- 0 0.0 5.0 -1 3
+ 0.201398 4 5 ping 50000 ------- 0 0.0 5.0 -1 3
+ 0.3 0 4 ping 50000 ------- 0 0.0 5.0 -1 4
- 0.3 0 4 ping 50000 ------- 0 0.0 5.0 -1 4
+ 0.3 2 4 ping 30000 ------- 0 2.0 3.0 -1 5
- 0.3 2 4 ping 30000 ------- 0 2.0 3.0 -1 5
+ 0.3 2 4 ping 30000 ------- 0 2.0 3.0 -1 6
- 0.30012 2 4 ping 30000 ------- 0 2.0 3.0 -1 6
r 0.30112 2 4 ping 30000 ------- 0 2.0 3.0 -1 5
+ 0.30112 4 3 ping 30000 ------- 0 2.0 3.0 -1 5
- 0.30112 4 3 ping 30000 ------- 0 2.0 3.0 -1 5
r 0.30124 2 4 ping 30000 ------- 0 2.0 3.0 -1 6
+ 0.30124 4 3 ping 30000 ------- 0 2.0 3.0 -1 6
r 0.301398 0 4 ping 50000 ------- 0 0.0 5.0 -1 4
+ 0.301398 4 5 ping 50000 ------- 0 0.0 5.0 -1 4
d 0.301398 4 5 ping 50000 ------- 0 0.0 5.0 -1 4
- 0.30232 4 3 ping 30000 ------- 0 2.0 3.0 -1 6
r 0.30332 4 3 ping 30000 ------- 0 2.0 3.0 -1 5
+ 0.30332 3 4 ping 64 ------- 0 3.0 2.0 -1 7
- 0.30332 3 4 ping 64 ------- 0 3.0 2.0 -1 7
r 0.304323 3 4 ping 64 ------- 0 3.0 2.0 -1 7
+ 0.304323 4 2 ping 64 ------- 0 3.0 2.0 -1 7
- 0.304323 4 2 ping 64 ------- 0 3.0 2.0 -1 7
r 0.30452 4 3 ping 30000 ------- 0 2.0 3.0 -1 6
+ 0.30452 3 4 ping 64 ------- 0 3.0 2.0 -1 8
- 0.30452 3 4 ping 64 ------- 0 3.0 2.0 -1 8
r 0.305323 4 2 ping 64 ------- 0 3.0 2.0 -1 7
r 0.305523 3 4 ping 64 ------- 0 3.0 2.0 -1 8
+ 0.305523 4 2 ping 64 ------- 0 3.0 2.0 -1 8
- 0.305523 4 2 ping 64 ------- 0 3.0 2.0 -1 8
r 0.306523 4 2 ping 64 ------- 0 3.0 2.0 -1 8
+ 0.4 0 4 ping 50000 ------- 0 0.0 5.0 -1 9
- 0.4 0 4 ping 50000 ------- 0 0.0 5.0 -1 9
+ 0.4 2 4 ping 30000 ------- 0 2.0 3.0 -1 10
- 0.4 2 4 ping 30000 ------- 0 2.0 3.0 -1 10
r 0.40112 2 4 ping 30000 ------- 0 2.0 3.0 -1 10
+ 0.40112 4 3 ping 30000 ------- 0 2.0 3.0 -1 10
- 0.40112 4 3 ping 30000 ------- 0 2.0 3.0 -1 10
r 0.401398 0 4 ping 50000 ------- 0 0.0 5.0 -1 9
+ 0.401398 4 5 ping 50000 ------- 0 0.0 5.0 -1 9
d 0.401398 4 5 ping 50000 ------- 0 0.0 5.0 -1 9
r 0.40332 4 3 ping 30000 ------- 0 2.0 3.0 -1 10
+ 0.40332 3 4 ping 64 ------- 0 3.0 2.0 -1 11
- 0.40332 3 4 ping 64 ------- 0 3.0 2.0 -1 11
r 0.404323 3 4 ping 64 ------- 0 3.0 2.0 -1 11
+ 0.404323 4 2 ping 64 ------- 0 3.0 2.0 -1 11
- 0.404323 4 2 ping 64 ------- 0 3.0 2.0 -1 11
r 0.405323 4 2 ping 64 ------- 0 3.0 2.0 -1 11
+ 0.5 0 4 ping 50000 ------- 0 0.0 5.0 -1 12
- 0.5 0 4 ping 50000 ------- 0 0.0 5.0 -1 12
+ 0.5 2 4 ping 30000 ------- 0 2.0 3.0 -1 13
- 0.5 2 4 ping 30000 ------- 0 2.0 3.0 -1 13
r 0.50112 2 4 ping 30000 ------- 0 2.0 3.0 -1 13
+ 0.50112 4 3 ping 30000 ------- 0 2.0 3.0 -1 13
- 0.50112 4 3 ping 30000 ------- 0 2.0 3.0 -1 13
- 0.501398 4 5 ping 50000 ------- 0 0.0 5.0 -1 3
r 0.501398 0 4 ping 50000 ------- 0 0.0 5.0 -1 12
+ 0.501398 4 5 ping 50000 ------- 0 0.0 5.0 -1 12
r 0.502398 4 5 ping 50000 ------- 0 0.0 5.0 -1 0
+ 0.502398 5 4 ping 64 ------- 0 5.0 0.0 -1 14
- 0.502398 5 4 ping 64 ------- 0 5.0 0.0 -1 14
r 0.50332 4 3 ping 30000 ------- 0 2.0 3.0 -1 13
+ 0.50332 3 4 ping 64 ------- 0 3.0 2.0 -1 15
- 0.50332 3 4 ping 64 ------- 0 3.0 2.0 -1 15
r 0.50391 5 4 ping 64 ------- 0 5.0 0.0 -1 14
+ 0.50391 4 0 ping 64 ------- 0 5.0 0.0 -1 14
- 0.50391 4 0 ping 64 ------- 0 5.0 0.0 -1 14
r 0.504323 3 4 ping 64 ------- 0 3.0 2.0 -1 15
+ 0.504323 4 2 ping 64 ------- 0 3.0 2.0 -1 15
- 0.504323 4 2 ping 64 ------- 0 3.0 2.0 -1 15
r 0.504911 4 0 ping 64 ------- 0 5.0 0.0 -1 14
r 0.505323 4 2 ping 64 ------- 0 3.0 2.0 -1 15
+ 0.6 0 4 ping 50000 ------- 0 0.0 5.0 -1 16
- 0.6 0 4 ping 50000 ------- 0 0.0 5.0 -1 16
+ 0.6 2 4 ping 30000 ------- 0 2.0 3.0 -1 17
- 0.6 2 4 ping 30000 ------- 0 2.0 3.0 -1 17
r 0.60112 2 4 ping 30000 ------- 0 2.0 3.0 -1 17
+ 0.60112 4 3 ping 30000 ------- 0 2.0 3.0 -1 17
- 0.60112 4 3 ping 30000 ------- 0 2.0 3.0 -1 17
r 0.601398 0 4 ping 50000 ------- 0 0.0 5.0 -1 16
+ 0.601398 4 5 ping 50000 ------- 0 0.0 5.0 -1 16
d 0.601398 4 5 ping 50000 ------- 0 0.0 5.0 -1 16
r 0.60332 4 3 ping 30000 ------- 0 2.0 3.0 -1 17
+ 0.60332 3 4 ping 64 ------- 0 3.0 2.0 -1 18
- 0.60332 3 4 ping 64 ------- 0 3.0 2.0 -1 18
r 0.604323 3 4 ping 64 ------- 0 3.0 2.0 -1 18
+ 0.604323 4 2 ping 64 ------- 0 3.0 2.0 -1 18
- 0.604323 4 2 ping 64 ------- 0 3.0 2.0 -1 18
r 0.605323 4 2 ping 64 ------- 0 3.0 2.0 -1 18
+ 0.7 0 4 ping 50000 ------- 0 0.0 5.0 -1 19
- 0.7 0 4 ping 50000 ------- 0 0.0 5.0 -1 19
+ 0.7 2 4 ping 30000 ------- 0 2.0 3.0 -1 20
- 0.7 2 4 ping 30000 ------- 0 2.0 3.0 -1 20
r 0.70112 2 4 ping 30000 ------- 0 2.0 3.0 -1 20
+ 0.70112 4 3 ping 30000 ------- 0 2.0 3.0 -1 20
- 0.70112 4 3 ping 30000 ------- 0 2.0 3.0 -1 20
r 0.701398 0 4 ping 50000 ------- 0 0.0 5.0 -1 19
+ 0.701398 4 5 ping 50000 ------- 0 0.0 5.0 -1 19
d 0.701398 4 5 ping 50000 ------- 0 0.0 5.0 -1 19
r 0.70332 4 3 ping 30000 ------- 0 2.0 3.0 -1 20
+ 0.70332 3 4 ping 64 ------- 0 3.0 2.0 -1 21
- 0.70332 3 4 ping 64 ------- 0 3.0 2.0 -1 21
r 0.704323 3 4 ping 64 ------- 0 3.0 2.0 -1 21
+ 0.704323 4 2 ping 64 ------- 0 3.0 2.0 -1 21
- 0.704323 4 2 ping 64 ------- 0 3.0 2.0 -1 21
r 0.705323 4 2 ping 64 ------- 0 3.0 2.0 -1 21
+ 0.8 0 4 ping 50000 ------- 0 0.0 5.0 -1 22
- 0.8 0 4 ping 50000 ------- 0 0.0 5.0 -1 22
+ 0.8 2 4 ping 30000 ------- 0 2.0 3.0 -1 23
- 0.8 2 4 ping 30000 ------- 0 2.0 3.0 -1 23
r 0.80112 2 4 ping 30000 ------- 0 2.0 3.0 -1 23
+ 0.80112 4 3 ping 30000 ------- 0 2.0 3.0 -1 23
- 0.80112 4 3 ping 30000 ------- 0 2.0 3.0 -1 23
r 0.801398 0 4 ping 50000 ------- 0 0.0 5.0 -1 22
+ 0.801398 4 5 ping 50000 ------- 0 0.0 5.0 -1 22
d 0.801398 4 5 ping 50000 ------- 0 0.0 5.0 -1 22
r 0.80332 4 3 ping 30000 ------- 0 2.0 3.0 -1 23
+ 0.80332 3 4 ping 64 ------- 0 3.0 2.0 -1 24
- 0.80332 3 4 ping 64 ------- 0 3.0 2.0 -1 24
r 0.804323 3 4 ping 64 ------- 0 3.0 2.0 -1 24
+ 0.804323 4 2 ping 64 ------- 0 3.0 2.0 -1 24
- 0.804323 4 2 ping 64 ------- 0 3.0 2.0 -1 24
r 0.805323 4 2 ping 64 ------- 0 3.0 2.0 -1 24
+ 0.9 0 4 ping 50000 ------- 0 0.0 5.0 -1 25
- 0.9 0 4 ping 50000 ------- 0 0.0 5.0 -1 25
+ 0.9 2 4 ping 30000 ------- 0 2.0 3.0 -1 26
- 0.9 2 4 ping 30000 ------- 0 2.0 3.0 -1 26
r 0.90112 2 4 ping 30000 ------- 0 2.0 3.0 -1 26
+ 0.90112 4 3 ping 30000 ------- 0 2.0 3.0 -1 26
- 0.90112 4 3 ping 30000 ------- 0 2.0 3.0 -1 26
- 0.901398 4 5 ping 50000 ------- 0 0.0 5.0 -1 12
r 0.901398 0 4 ping 50000 ------- 0 0.0 5.0 -1 25
+ 0.901398 4 5 ping 50000 ------- 0 0.0 5.0 -1 25
r 0.902398 4 5 ping 50000 ------- 0 0.0 5.0 -1 3
+ 0.902398 5 4 ping 64 ------- 0 5.0 0.0 -1 27
- 0.902398 5 4 ping 64 ------- 0 5.0 0.0 -1 27
r 0.90332 4 3 ping 30000 ------- 0 2.0 3.0 -1 26
+ 0.90332 3 4 ping 64 ------- 0 3.0 2.0 -1 28
- 0.90332 3 4 ping 64 ------- 0 3.0 2.0 -1 28
r 0.90391 5 4 ping 64 ------- 0 5.0 0.0 -1 27
+ 0.90391 4 0 ping 64 ------- 0 5.0 0.0 -1 27
- 0.90391 4 0 ping 64 ------- 0 5.0 0.0 -1 27
r 0.904323 3 4 ping 64 ------- 0 3.0 2.0 -1 28
+ 0.904323 4 2 ping 64 ------- 0 3.0 2.0 -1 28
- 0.904323 4 2 ping 64 ------- 0 3.0 2.0 -1 28
r 0.904911 4 0 ping 64 ------- 0 5.0 0.0 -1 27
r 0.905323 4 2 ping 64 ------- 0 3.0 2.0 -1 28
+ 1 0 4 ping 50000 ------- 0 0.0 5.0 -1 29
- 1 0 4 ping 50000 ------- 0 0.0 5.0 -1 29
+ 1 2 4 ping 30000 ------- 0 2.0 3.0 -1 30
- 1 2 4 ping 30000 ------- 0 2.0 3.0 -1 30
r 1.00112 2 4 ping 30000 ------- 0 2.0 3.0 -1 30
+ 1.00112 4 3 ping 30000 ------- 0 2.0 3.0 -1 30
- 1.00112 4 3 ping 30000 ------- 0 2.0 3.0 -1 30
r 1.001398 0 4 ping 50000 ------- 0 0.0 5.0 -1 29
+ 1.001398 4 5 ping 50000 ------- 0 0.0 5.0 -1 29
d 1.001398 4 5 ping 50000 ------- 0 0.0 5.0 -1 29
r 1.00332 4 3 ping 30000 ------- 0 2.0 3.0 -1 30
+ 1.00332 3 4 ping 64 ------- 0 3.0 2.0 -1 31
- 1.00332 3 4 ping 64 ------- 0 3.0 2.0 -1 31
r 1.004323 3 4 ping 64 ------- 0 3.0 2.0 -1 31
+ 1.004323 4 2 ping 64 ------- 0 3.0 2.0 -1 31
- 1.004323 4 2 ping 64 ------- 0 3.0 2.0 -1 31
r 1.005323 4 2 ping 64 ------- 0 3.0 2.0 -1 31
- 1.301398 4 5 ping 50000 ------- 0 0.0 5.0 -1 25
r 1.302398 4 5 ping 50000 ------- 0 0.0 5.0 -1 12
+ 1.302398 5 4 ping 64 ------- 0 5.0 0.0 -1 32
- 1.302398 5 4 ping 64 ------- 0 5.0 0.0 -1 32
r 1.30391 5 4 ping 64 ------- 0 5.0 0.0 -1 32
+ 1.30391 4 0 ping 64 ------- 0 5.0 0.0 -1 32
- 1.30391 4 0 ping 64 ------- 0 5.0 0.0 -1 32
r 1.304911 4 0 ping 64 ------- 0 5.0 0.0 -1 32
r 1.702398 4 5 ping 50000 ------- 0 0.0 5.0 -1 25
+ 1.702398 5 4 ping 64 ------- 0 5.0 0.0 -1 33
- 1.702398 5 4 ping 64 ------- 0 5.0 0.0 -1 33
r 1.70391 5 4 ping 64 ------- 0 5.0 0.0 -1 33
+ 1.70391 4 0 ping 64 ------- 0 5.0 0.0 -1 33
- 1.70391 4 0 ping 64 ------- 0 5.0 0.0 -1 33
r 1.704911 4 0 ping 64 ------- 0 5.0 0.0 -1 33
